    2    2    1    1
  0.3155047E+02  0.2464229E-09  0.2464229E-09  0.1199894E-08  0.5000000E-15
  1.000000000000000E-004
  CAR 
 Graphene                                
      8    300     40
 
  0.0000000E+00  0.0000000E+00  0.0000000E+00  0.3333333E-02
      1        -21.269615   1.000000
      2         -9.369341   1.000000
      3         -4.767358   1.000000
      4         -4.767300   1.000000
      5          1.467645   0.000000
      6          2.608610   0.000000
      7          3.475203   0.000000
      8          6.589553   0.000000
      9          6.596067   0.000000
     10          6.596141   0.000000
     11          7.840842   0.000000
     12          9.703801   0.000000
     13         10.809747   0.000000
     14         12.826708   0.000000
     15         14.660480   0.000000
     16         20.781877   0.000000
     17         21.016649   0.000000
     18         23.746713   0.000000
     19         26.478432   0.000000
     20         26.478448   0.000000
     21         29.106882   0.000000
     22         29.898196   0.000000
     23         29.898221   0.000000
     24         33.505641   0.000000
     25         33.505646   0.000000
     26         33.735395   0.000000
     27         34.003125   0.000000
     28         34.003138   0.000000
     29         34.476447   0.000000
     30         34.845247   0.000000
     31         34.850416   0.000000
     32         35.079396   0.000000
     33         35.988202   0.000000
     34         35.988204   0.000000
     35         36.092564   0.000000
     36         36.092696   0.000000
     37         36.206594   0.000000
     38         36.206969   0.000000
     39         36.406402   0.000000
     40         36.406441   0.000000
 
  0.5050505E-02  0.0000000E+00  0.0000000E+00  0.3333333E-02
      1        -21.269025   1.000000
      2         -9.368620   1.000000
      3         -4.769840   1.000000
      4         -4.768682   1.000000
      5          1.468465   0.000000
      6          2.609431   0.000000
      7          3.476028   0.000000
      8          6.590351   0.000000
      9          6.596267   0.000000
     10          6.598720   0.000000
     11          7.841694   0.000000
     12          9.701666   0.000000
     13         10.810798   0.000000
     14         12.827427   0.000000
     15         14.661291   0.000000
     16         20.783891   0.000000
     17         21.016923   0.000000
     18         23.747482   0.000000
     19         26.471373   0.000000
     20         26.472911   0.000000
     21         29.073889   0.000000
     22         29.906738   0.000000
     23         29.936177   0.000000
     24         33.416359   0.000000
     25         33.458623   0.000000
     26         33.738024   0.000000
     27         34.004536   0.000000
     28         34.051327   0.000000
     29         34.519537   0.000000
     30         34.807829   0.000000
     31         34.864396   0.000000
     32         35.095621   0.000000
     33         35.916453   0.000000
     34         35.932513   0.000000
     35         35.957585   0.000000
     36         35.976985   0.000000
     37         36.246025   0.000000
     38         36.324142   0.000000
     39         36.361551   0.000000
     40         36.463741   0.000000
 
  0.1010101E-01  0.0000000E+00  0.0000000E+00  0.3333333E-02
      1        -21.267209   1.000000
      2         -9.366455   1.000000
      3         -4.777393   1.000000
      4         -4.772692   1.000000
      5          1.470928   0.000000
      6          2.611899   0.000000
      7          3.478502   0.000000
      8          6.592762   0.000000
      9          6.597390   0.000000
     10          6.606686   0.000000
     11          7.844249   0.000000
     12          9.695532   0.000000
     13         10.813956   0.000000
     14         12.829642   0.000000
     15         14.663724   0.000000
     16         20.789928   0.000000
     17         21.017927   0.000000
     18         23.749793   0.000000
     19         26.450420   0.000000
     20         26.456190   0.000000
     21         28.990764   0.000000
     22         29.932099   0.000000
     23         30.034670   0.000000
     24         33.212450   0.000000
     25         33.349817   0.000000
     26         33.745754   0.000000
     27         33.967050   0.000000
     28         34.163820   0.000000
     29         34.629651   0.000000
     30         34.702597   0.000000
     31         34.893984   0.000000
     32         35.142443   0.000000
     33         35.674215   0.000000
     34         35.812008   0.000000
     35         35.820592   0.000000
     36         35.853649   0.000000
     37         36.208060   0.000000
     38         36.352224   0.000000
     39         36.486026   0.000000
     40         36.589159   0.000000
 
  0.1515152E-01  0.0000000E+00  0.0000000E+00  0.3333333E-02
      1        -21.264192   1.000000
      2         -9.362847   1.000000
      3         -4.789979   1.000000
      4         -4.779353   1.000000
      5          1.475031   0.000000
      6          2.616010   0.000000
      7          3.482625   0.000000
      8          6.596773   0.000000
      9          6.599109   0.000000
     10          6.619974   0.000000
     11          7.848505   0.000000
     12          9.685127   0.000000
     13         10.819229   0.000000
     14         12.833309   0.000000
     15         14.667777   0.000000
     16         20.799969   0.000000
     17         21.019506   0.000000
     18         23.753644   0.000000
     19         26.416189   0.000000
     20         26.427789   0.000000
     21         28.883453   0.000000
     22         29.973699   0.000000
     23         30.167525   0.000000
     24         32.961885   0.000000
     25         33.216576   0.000000
     26         33.757668   0.000000
     27         33.881335   0.000000
     28         34.303055   0.000000
     29         34.545180   0.000000
     30         34.731062   0.000000
     31         34.922605   0.000000
     32         35.197108   0.000000
     33         35.484412   0.000000
     34         35.663310   0.000000
     35         35.670874   0.000000
     36         35.704110   0.000000
     37         36.155170   0.000000
     38         36.411733   0.000000
     39         36.652865   0.000000
     40         36.738415   0.000000
 
  0.2020202E-01  0.0000000E+00  0.0000000E+00  0.3333333E-02
      1        -21.259963   1.000000
      2         -9.357795   1.000000
      3         -4.807552   1.000000
      4         -4.788658   1.000000
      5          1.480777   0.000000
      6          2.621765   0.000000
      7          3.488398   0.000000
      8          6.601578   0.000000
      9          6.602389   0.000000
     10          6.638514   0.000000
     11          7.854462   0.000000
     12          9.670279   0.000000
     13         10.826637   0.000000
     14         12.838447   0.000000
     15         14.673451   0.000000
     16         20.813993   0.000000
     17         21.021701   0.000000
     18         23.759039   0.000000
     19         26.369588   0.000000
     20         26.387080   0.000000
     21         28.769736   0.000000
     22         30.030542   0.000000
     23         30.317137   0.000000
     24         32.690991   0.000000
     25         33.074072   0.000000
     26         33.768451   0.000000
     27         33.771110   0.000000
     28         34.353090   0.000000
     29         34.453196   0.000000
     30         34.706053   0.000000
     31         34.934420   0.000000
     32         35.245225   0.000000
     33         35.430847   0.000000
     34         35.507958   0.000000
     35         35.523202   0.000000
     36         35.547077   0.000000
     37         36.142297   0.000000
     38         36.503871   0.000000
     39         36.821801   0.000000
     40         36.897397   0.000000
 
  0.2525253E-01  0.0000000E+00  0.0000000E+00  0.3333333E-02
      1        -21.254541   1.000000
      2         -9.351301   1.000000
      3         -4.830081   1.000000
      4         -4.800563   1.000000
      5          1.488163   0.000000
      6          2.629162   0.000000
      7          3.495821   0.000000
      8          6.604626   0.000000
      9          6.609600   0.000000
     10          6.662186   0.000000
     11          7.862115   0.000000
     12          9.651206   0.000000
     13         10.836199   0.000000
     14         12.845017   0.000000
     15         14.680743   0.000000
     16         20.831952   0.000000
     17         21.024354   0.000000
     18         23.765979   0.000000
     19         26.311764   0.000000
     20         26.333355   0.000000
     21         28.659209   0.000000
     22         30.101478   0.000000
     23         30.473548   0.000000
     24         32.409717   0.000000
     25         32.927931   0.000000
     26         33.641234   0.000000
     27         33.775736   0.000000
     28         34.148241   0.000000
     29         34.516706   0.000000
     30         34.607188   0.000000
     31         34.939589   0.000000
     32         35.346421   0.000000
     33         35.356424   0.000000
     34         35.373570   0.000000
     35         35.397459   0.000000
     36         35.426194   0.000000
     37         36.213981   0.000000
     38         36.606285   0.000000
     39         36.993129   0.000000
     40         37.061418   0.000000
 
  0.3030303E-01  0.0000000E+00  0.0000000E+00  0.3333333E-02
      1        -21.247897   1.000000
      2         -9.343365   1.000000
      3         -4.857512   1.000000
      4         -4.815042   1.000000
      5          1.497191   0.000000
      6          2.638205   0.000000
      7          3.504893   0.000000
      8          6.608240   0.000000
      9          6.618423   0.000000
     10          6.691157   0.000000
     11          7.871461   0.000000
     12          9.627868   0.000000
     13         10.847947   0.000000
     14         12.853079   0.000000
     15         14.689653   0.000000
     16         20.853799   0.000000
     17         21.027609   0.000000
     18         23.774468   0.000000
     19         26.244007   0.000000
     20         26.266007   0.000000
     21         28.557617   0.000000
     22         30.185194   0.000000
     23         30.630818   0.000000
     24         32.122823   0.000000
     25         32.780480   0.000000
     26         33.505517   0.000000
     27         33.721780   0.000000
     28         33.988507   0.000000
     29         34.257207   0.000000
     30         34.757607   0.000000
     31         34.948545   0.000000
     32         35.214174   0.000000
     33         35.223819   0.000000
     34         35.260080   0.000000
     35         35.357838   0.000000
     36         35.497844   0.000000
     37         36.374878   0.000000
     38         36.704255   0.000000
     39         37.165498   0.000000
     40         37.228473   0.000000
 
  0.3535354E-01  0.0000000E+00  0.0000000E+00  0.3333333E-02
      1        -21.240046   1.000000
      2         -9.333988   1.000000
      3         -4.889773   1.000000
      4         -4.832042   1.000000
      5          1.507861   0.000000
      6          2.648892   0.000000
      7          3.515615   0.000000
      8          6.612341   0.000000
      9          6.628849   0.000000
     10          6.725277   0.000000
     11          7.882496   0.000000
     12          9.600369   0.000000
     13         10.861914   0.000000
     14         12.862601   0.000000
     15         14.700177   0.000000
     16         20.879477   0.000000
     17         21.031307   0.000000
     18         23.784510   0.000000
     19         26.167590   0.000000
     20         26.184753   0.000000
     21         28.468001   0.000000
     22         30.280361   0.000000
     23         30.784651   0.000000
     24         31.832757   0.000000
     25         32.632869   0.000000
     26         33.363460   0.000000
     27         33.537485   0.000000
     28         33.950414   0.000000
     29         33.977615   0.000000
     30         34.870420   0.000000
     31         34.958595   0.000000
     32         35.074834   0.000000
     33         35.114068   0.000000
     34         35.137485   0.000000
     35         35.268815   0.000000
     36         35.636945   0.000000
     37         36.593089   0.000000
     38         36.781747   0.000000
     39         37.339877   0.000000
     40         37.397388   0.000000
 
  0.4040404E-01  0.0000000E+00  0.0000000E+00  0.3333333E-02
      1        -21.230984   1.000000
      2         -9.323171   1.000000
      3         -4.926787   1.000000
      4         -4.851498   1.000000
      5          1.520173   0.000000
      6          2.661223   0.000000
      7          3.527987   0.000000
      8          6.616851   0.000000
      9          6.640881   0.000000
     10          6.764544   0.000000
     11          7.895214   0.000000
     12          9.569010   0.000000
     13         10.878139   0.000000
     14         12.873591   0.000000
     15         14.712314   0.000000
     16         20.908915   0.000000
     17         21.035402   0.000000
     18         23.796109   0.000000
     19         26.083759   0.000000
     20         26.089802   0.000000
     21         28.392056   0.000000
     22         30.385693   0.000000
     23         30.931572   0.000000
     24         31.540960   0.000000
     25         32.485713   0.000000
     26         33.214365   0.000000
     27         33.292143   0.000000
     28         33.694695   0.000000
     29         33.966393   0.000000
     30         34.829843   0.000000
     31         34.927119   0.000000
     32         34.968590   0.000000
     33         35.032879   0.000000
     34         35.158082   0.000000
     35         35.171470   0.000000
     36         35.773972   0.000000
     37         36.815442   0.000000
     38         36.840580   0.000000
     39         37.492602   0.000000
     40         37.530301   0.000000
 
  0.4545455E-01  0.0000000E+00  0.0000000E+00  0.3333333E-02
      1        -21.220719   1.000000
      2         -9.310915   1.000000
      3         -4.968470   1.000000
      4         -4.873370   1.000000
      5          1.534126   0.000000
      6          2.675197   0.000000
      7          3.542009   0.000000
      8          6.621675   0.000000
      9          6.654511   0.000000
     10          6.808787   0.000000
     11          7.909609   0.000000
     12          9.533310   0.000000
     13         10.896660   0.000000
     14         12.886020   0.000000
     15         14.726061   0.000000
     16         20.942027   0.000000
     17         21.039730   0.000000
     18         23.809271   0.000000
     19         25.981765   0.000000
     20         25.993645   0.000000
     21         28.330270   0.000000
     22         30.499926   0.000000
     23         31.068107   0.000000
     24         31.248333   0.000000
     25         32.339345   0.000000
     26         33.030700   0.000000
     27         33.053318   0.000000
     28         33.419413   0.000000
     29         33.990118   0.000000
     30         34.701914   0.000000
     31         34.781008   0.000000
     32         34.951324   0.000000
     33         34.972484   0.000000
     34         35.043637   0.000000
     35         35.319670   0.000000
     36         35.899812   0.000000
     37         36.778041   0.000000
     38         37.100931   0.000000
     39         37.403869   0.000000
     40         37.671534   0.000000
 
  0.5050505E-01  0.0000000E+00  0.0000000E+00  0.3333333E-02
      1        -21.209247   1.000000
      2         -9.297220   1.000000
      3         -5.014729   1.000000
      4         -4.897582   1.000000
      5          1.549722   0.000000
      6          2.690813   0.000000
      7          3.557681   0.000000
      8          6.626721   0.000000
      9          6.669740   0.000000
     10          6.857987   0.000000
     11          7.925675   0.000000
     12          9.493581   0.000000
     13         10.917519   0.000000
     14         12.899897   0.000000
     15         14.741415   0.000000
     16         20.978719   0.000000
     17         21.044213   0.000000
     18         23.824003   0.000000
     19         25.861851   0.000000
     20         25.898293   0.000000
     21         28.282391   0.000000
     22         30.621929   0.000000
     23         30.955501   0.000000
     24         31.190524   0.000000
     25         32.193995   0.000000
     26         32.765486   0.000000
     27         32.867408   0.000000
     28         33.167517   0.000000
     29         34.005488   0.000000
     30         34.560431   0.000000
     31         34.636761   0.000000
     32         34.895188   0.000000
     33         34.900072   0.000000
     34         35.005892   0.000000
     35         35.484795   0.000000
     36         36.002418   0.000000
     37         36.663140   0.000000
     38         37.260005   0.000000
     39         37.365187   0.000000
     40         37.661606   0.000000
 
  0.5555556E-01  0.0000000E+00  0.0000000E+00  0.3333333E-02
      1        -21.196570   1.000000
      2         -9.282089   1.000000
      3         -5.065462   1.000000
      4         -4.924060   1.000000
      5          1.566959   0.000000
      6          2.708071   0.000000
      7          3.575004   0.000000
      8          6.631888   0.000000
      9          6.686568   0.000000
     10          6.912066   0.000000
     11          7.943403   0.000000
     12          9.449879   0.000000
     13         10.940762   0.000000
     14         12.915217   0.000000
     15         14.758373   0.000000
     16         21.018883   0.000000
     17         21.048718   0.000000
     18         23.840313   0.000000
     19         25.731588   0.000000
     20         25.798617   0.000000
     21         28.247545   0.000000
     22         30.662904   0.000000
     23         30.750642   0.000000
     24         31.293467   0.000000
     25         32.049809   0.000000
     26         32.503987   0.000000
     27         32.640517   0.000000
     28         32.956656   0.000000
     29         34.002117   0.000000
     30         34.416546   0.000000
     31         34.494616   0.000000
     32         34.767745   0.000000
     33         34.886180   0.000000
     34         35.016511   0.000000
     35         35.655517   0.000000
     36         36.059601   0.000000
     37         36.493528   0.000000
     38         37.126430   0.000000
     39         37.620342   0.000000
     40         37.681595   0.000000
 
  0.6060606E-01  0.0000000E+00  0.0000000E+00  0.3333333E-02
      1        -21.182686   1.000000
      2         -9.265521   1.000000
      3         -5.120559   1.000000
      4         -4.952714   1.000000
      5          1.585839   0.000000
      6          2.726972   0.000000
      7          3.593977   0.000000
      8          6.637078   0.000000
      9          6.704995   0.000000
     10          6.970960   0.000000
     11          7.962786   0.000000
     12          9.402331   0.000000
     13         10.966432   0.000000
     14         12.931976   0.000000
     15         14.776932   0.000000
     16         21.053098   0.000000
     17         21.062404   0.000000
     18         23.858209   0.000000
     19         25.592715   0.000000
     20         25.695413   0.000000
     21         28.224502   0.000000
     22         30.370872   0.000000
     23         30.885077   0.000000
     24         31.366800   0.000000
     25         31.906998   0.000000
     26         32.256995   0.000000
     27         32.377686   0.000000
     28         32.782717   0.000000
     29         33.974994   0.000000
     30         34.272739   0.000000
     31         34.354826   0.000000
     32         34.635816   0.000000
     33         34.911380   0.000000
     34         35.031316   0.000000
     35         35.829256   0.000000
     36         36.039707   0.000000
     37         36.296533   0.000000
     38         37.052676   0.000000
     39         37.697747   0.000000
     40         37.856453   0.000000
 
  0.6565657E-01  0.0000000E+00  0.0000000E+00  0.3333333E-02
      1        -21.167601   1.000000
      2         -9.247521   1.000000
      3         -5.179918   1.000000
      4         -4.983488   1.000000
      5          1.606360   0.000000
      6          2.747513   0.000000
      7          3.614601   0.000000
      8          6.642113   0.000000
      9          6.725016   0.000000
     10          7.034540   0.000000
     11          7.983814   0.000000
     12          9.350773   0.000000
     13         10.994546   0.000000
     14         12.950164   0.000000
     15         14.797087   0.000000
     16         21.057153   0.000000
     17         21.109084   0.000000
     18         23.877699   0.000000
     19         25.446984   0.000000
     20         25.589365   0.000000
     21         28.211847   0.000000
     22         30.079658   0.000000
     23         31.024275   0.000000
     24         31.386918   0.000000
     25         31.765396   0.000000
     26         32.048389   0.000000
     27         32.096865   0.000000
     28         32.628325   0.000000
     29         33.925997   0.000000
     30         34.129723   0.000000
     31         34.217686   0.000000
     32         34.502587   0.000000
     33         34.967599   0.000000
     34         35.047926   0.000000
     35         35.928099   0.000000
     36         36.005053   0.000000
     37         36.093287   0.000000
     38         37.062737   0.000000
     39         37.688347   0.000000
     40         38.009238   0.000000
 
  0.7070707E-01  0.0000000E+00  0.0000000E+00  0.3333333E-02
      1        -21.151308   1.000000
      2         -9.228088   1.000000
      3         -5.243394   1.000000
      4         -5.016283   1.000000
      5          1.628524   0.000000
      6          2.769695   0.000000
      7          3.636876   0.000000
      8          6.647017   0.000000
      9          6.746632   0.000000
     10          7.102738   0.000000
     11          8.006479   0.000000
     12          9.295513   0.000000
     13         11.025181   0.000000
     14         12.969778   0.000000
     15         14.818836   0.000000
     16         21.060694   0.000000
     17         21.158885   0.000000
     18         23.898797   0.000000
     19         25.296130   0.000000
     20         25.481071   0.000000
     21         28.208136   0.000000
     22         29.789474   0.000000
     23         31.167287   0.000000
     24         31.311663   0.000000
     25         31.625188   0.000000
     26         31.808695   0.000000
     27         31.920758   0.000000
     28         32.483268   0.000000
     29         33.861015   0.000000
     30         33.987897   0.000000
     31         34.083578   0.000000
     32         34.368951   0.000000
     33         35.034270   0.000000
     34         35.065966   0.000000
     35         35.746737   0.000000
     36         35.906402   0.000000
     37         36.182390   0.000000
     38         37.138516   0.000000
     39         37.648010   0.000000
     40         37.870462   0.000000
 
  0.7575758E-01  0.0000000E+00  0.0000000E+00  0.3333333E-02
      1        -21.133814   1.000000
      2         -9.207225   1.000000
      3         -5.310878   1.000000
      4         -5.051010   1.000000
      5          1.652330   0.000000
      6          2.793517   0.000000
      7          3.660801   0.000000
      8          6.651619   0.000000
      9          6.769837   0.000000
     10          7.175455   0.000000
     11          8.030772   0.000000
     12          9.236383   0.000000
     13         11.058350   0.000000
     14         12.990803   0.000000
     15         14.842174   0.000000
     16         21.063452   0.000000
     17         21.211588   0.000000
     18         23.921515   0.000000
     19         25.141750   0.000000
     20         25.371032   0.000000
     21         28.211944   0.000000
     22         29.500492   0.000000
     23         31.133347   0.000000
     24         31.313090   0.000000
     25         31.486405   0.000000
     26         31.517688   0.000000
     27         31.882199   0.000000
     28         32.343313   0.000000
     29         33.785831   0.000000
     30         33.847427   0.000000
     31         33.953020   0.000000
     32         34.235265   0.000000
     33         35.069291   0.000000
     34         35.085202   0.000000
     35         35.525954   0.000000
     36         35.776204   0.000000
     37         36.360843   0.000000
     38         37.251336   0.000000
     39         37.582703   0.000000
     40         37.734290   0.000000
 
  0.8080808E-01  0.0000000E+00  0.0000000E+00  0.3333333E-02
      1        -21.115115   1.000000
      2         -9.184933   1.000000
      3         -5.382234   1.000000
      4         -5.087578   1.000000
      5          1.677779   0.000000
      6          2.818978   0.000000
      7          3.686378   0.000000
      8          6.655834   0.000000
      9          6.794633   0.000000
     10          7.252593   0.000000
     11          8.056684   0.000000
     12          9.173763   0.000000
     13         11.094091   0.000000
     14         13.013247   0.000000
     15         14.867097   0.000000
     16         21.065193   0.000000
     17         21.267027   0.000000
     18         23.945864   0.000000
     19         24.985331   0.000000
     20         25.259680   0.000000
     21         28.221903   0.000000
     22         29.212868   0.000000
     23         30.899122   0.000000
     24         31.225857   0.000000
     25         31.349076   0.000000
     26         31.460502   0.000000
     27         31.886435   0.000000
     28         32.206673   0.000000
     29         33.704308   0.000000
     30         33.708409   0.000000
     31         33.826754   0.000000
     32         34.101671   0.000000
     33         35.014064   0.000000
     34         35.104737   0.000000
     35         35.285689   0.000000
     36         35.759502   0.000000
     37         36.539851   0.000000
     38         37.382278   0.000000
     39         37.501230   0.000000
     40         37.599992   0.000000
 
  0.8585859E-01  0.0000000E+00  0.0000000E+00  0.3333333E-02
      1        -21.095213   1.000000
      2         -9.161214   1.000000
      3         -5.457328   1.000000
      4         -5.125893   1.000000
      5          1.704869   0.000000
      6          2.846078   0.000000
      7          3.713605   0.000000
      8          6.659570   0.000000
      9          6.821015   0.000000
     10          7.334062   0.000000
     11          8.084205   0.000000
     12          9.107627   0.000000
     13         11.132447   0.000000
     14         13.037096   0.000000
     15         14.893601   0.000000
     16         21.065580   0.000000
     17         21.325002   0.000000
     18         23.971860   0.000000
     19         24.828200   0.000000
     20         25.147385   0.000000
     21         28.236701   0.000000
     22         28.926777   0.000000
     23         30.642856   0.000000
     24         30.934227   0.000000
     25         31.213227   0.000000
     26         31.608032   0.000000
     27         31.900478   0.000000
     28         32.072513   0.000000
     29         33.570901   0.000000
     30         33.618167   0.000000
     31         33.705886   0.000000
     32         33.968126   0.000000
     33         34.868502   0.000000
     34         35.027190   0.000000
     35         35.133435   0.000000
     36         35.855498   0.000000
     37         36.718247   0.000000
     38         37.410425   0.000000
     39         37.468878   0.000000
     40         37.520027   0.000000
 
  0.9090909E-01  0.0000000E+00  0.0000000E+00  0.3333333E-02
      1        -21.074112   1.000000
      2         -9.136073   1.000000
      3         -5.536047   1.000000
      4         -5.165867   1.000000
      5          1.733602   0.000000
      6          2.874817   0.000000
      7          3.742484   0.000000
      8          6.662716   0.000000
      9          6.848983   0.000000
     10          7.419679   0.000000
     11          8.113326   0.000000
     12          9.038015   0.000000
     13         11.173372   0.000000
     14         13.062352   0.000000
     15         14.921683   0.000000
     16         21.064275   0.000000
     17         21.385251   0.000000
     18         23.999517   0.000000
     19         24.671578   0.000000
     20         25.034459   0.000000
     21         28.254903   0.000000
     22         28.642270   0.000000
     23         30.378332   0.000000
     24         30.643300   0.000000
     25         31.078876   0.000000
     26         31.753599   0.000000
     27         31.911854   0.000000
     28         31.940402   0.000000
     29         33.434939   0.000000
     30         33.527128   0.000000
     31         33.592129   0.000000
     32         33.834395   0.000000
     33         34.681988   0.000000
     34         34.772869   0.000000
     35         35.154035   0.000000
     36         36.015223   0.000000
     37         36.891873   0.000000
     38         37.314832   0.000000
     39         37.344934   0.000000
     40         37.653492   0.000000
 
  0.9595960E-01  0.0000000E+00  0.0000000E+00  0.3333333E-02
      1        -21.051803   1.000000
      2         -9.109509   1.000000
      3         -5.618236   1.000000
      4         -5.207394   1.000000
      5          1.763977   0.000000
      6          2.905192   0.000000
      7          3.773013   0.000000
      8          6.665362   0.000000
      9          6.878528   0.000000
     10          7.509529   0.000000
     11          8.144041   0.000000