    3    3    1    2
  0.9065869E+02  0.3750359E-09  0.3750359E-09  0.2232816E-08  0.5000000E-15
  1.000000000000000E-004
  CAR 
 unknown system                          
     11    800     12
 
  0.0000000E+00  0.0000000E+00  0.0000000E+00  0.1250000E-02
      1        -20.182348      -20.052851   1.000000   1.000000
      2        -19.443503      -19.118243   1.000000   1.000000
      3        -19.443491      -19.118232   1.000000   1.000000
      4         -7.936199       -7.602440   1.000000   1.000000
      5         -5.264177       -5.164187   1.000000   1.000000
      6         -2.280295       -1.521321   1.000000   0.000000
      7         -1.738201       -1.324916   0.000000   0.000000
      8         -1.329323       -1.209269   0.000000   0.000000
      9         -1.253508       -1.105682   0.000000   0.000000
     10         -1.253498       -1.105674   0.000000   0.000000
     11         -1.106139       -0.966367   0.000000   0.000000
     12         -1.105976       -0.966363   0.000000   0.000000
 
  0.1675042E-02  0.1675042E-02  0.0000000E+00  0.1250000E-02
      1        -20.182331      -20.052834   1.000000   1.000000
      2        -19.443610      -19.118341   1.000000   1.000000
      3        -19.443513      -19.118252   1.000000   1.000000
      4         -7.936016       -7.602280   1.000000   1.000000
      5         -5.264217       -5.164228   1.000000   1.000000
      6         -2.280474       -1.521312   1.000000   0.000000
      7         -1.738240       -1.324924   0.000000   0.000000
      8         -1.329314       -1.209249   0.000000   0.000000
      9         -1.253523       -1.105696   0.000000   0.000000
     10         -1.253480       -1.105658   0.000000   0.000000
     11         -1.106096       -0.966369   0.000000   0.000000
     12         -1.104962       -0.966294   0.000000   0.000000
 
  0.3350084E-02  0.3350084E-02  0.0000000E+00  0.1250000E-02
      1        -20.182279      -20.052785   1.000000   1.000000
      2        -19.443931      -19.118634   1.000000   1.000000
      3        -19.443577      -19.118311   1.000000   1.000000
      4         -7.935470       -7.601803   1.000000   1.000000
      5         -5.264357       -5.164369   1.000000   1.000000
      6         -2.281006       -1.521286   1.000000   0.000000
      7         -1.738363       -1.324942   0.000000   0.000000
      8         -1.329264       -1.209187   0.000000   0.000000
      9         -1.253578       -1.105736   0.000000   0.000000
     10         -1.253430       -1.105608   0.000000   0.000000
     11         -1.106004       -0.966389   0.000000   0.000000
     12         -1.105724       -0.966077   0.000000   0.000000
 
  0.5025126E-02  0.5025126E-02  0.0000000E+00  0.1250000E-02
      1        -20.182193      -20.052702   1.000000   1.000000
      2        -19.444466      -19.119124   1.000000   1.000000
      3        -19.443685      -19.118410   1.000000   1.000000
      4         -7.934567       -7.601017   1.000000   1.000000
      5         -5.264592       -5.164606   1.000000   1.000000
      6         -2.281903       -1.521248   1.000000   0.000000
      7         -1.738563       -1.324987   0.000000   0.000000
      8         -1.329177       -1.209085   0.000000   0.000000
      9         -1.253664       -1.105806   0.000000   0.000000
     10         -1.253343       -1.105527   0.000000   0.000000
     11         -1.103608       -0.966420   0.000000   0.000000
     12         -1.102386       -0.965717   0.000000   0.000000
 
  0.6700168E-02  0.6700168E-02  0.0000000E+00  0.1250000E-02
      1        -20.182073      -20.052587   1.000000   1.000000
      2        -19.445215      -19.119810   1.000000   1.000000
      3        -19.443836      -19.118549   1.000000   1.000000
      4         -7.933294       -7.599909   1.000000   1.000000
      5         -5.264919       -5.164935   1.000000   1.000000
      6         -2.283162       -1.521194   1.000000   0.000000
      7         -1.738837       -1.325042   0.000000   0.000000
      8         -1.329066       -1.208944   0.000000   0.000000
      9         -1.253789       -1.105903   0.000000   0.000000
     10         -1.253225       -1.105413   0.000000   0.000000
     11         -1.106503       -0.966464   0.000000   0.000000
     12         -1.103297       -0.965210   0.000000   0.000000
 
  0.8375209E-02  0.8375209E-02  0.0000000E+00  0.1250000E-02
      1        -20.181918      -20.052439   1.000000   1.000000
      2        -19.446176      -19.120690   1.000000   1.000000
      3        -19.444029      -19.118727   1.000000   1.000000
      4         -7.931668       -7.598493   1.000000   1.000000
      5         -5.265338       -5.165358   1.000000   1.000000
      6         -2.284775       -1.521128   1.000000   0.000000
      7         -1.739178       -1.325104   0.000000   0.000000
      8         -1.328918       -1.208762   0.000000   0.000000
      9         -1.253947       -1.106028   0.000000   0.000000
     10         -1.253072       -1.105267   0.000000   0.000000
     11         -1.107020       -0.966520   0.000000   0.000000
     12         -1.105442       -0.964558   0.000000   0.000000
 
  0.1005025E-01  0.1005025E-01  0.0000000E+00  0.1250000E-02
      1        -20.181729      -20.052259   1.000000   1.000000
      2        -19.447351      -19.121765   1.000000   1.000000
      3        -19.444265      -19.118945   1.000000   1.000000
      4         -7.929671       -7.596754   1.000000   1.000000
      5         -5.265850       -5.165874   1.000000   1.000000
      6         -2.286760       -1.521051   1.000000   0.000000
      7         -1.739577       -1.325188   0.000000   0.000000
      8         -1.328726       -1.208541   0.000000   0.000000
      9         -1.254108       -1.106179   0.000000   0.000000
     10         -1.252856       -1.105088   0.000000   0.000000
     11         -1.103671       -0.966589   0.000000   0.000000
     12         -1.102576       -0.963760   0.000000   0.000000
 
  0.1172529E-01  0.1172529E-01  0.0000000E+00  0.1250000E-02
      1        -20.181506      -20.052045   1.000000   1.000000
      2        -19.448738      -19.123035   1.000000   1.000000
      3        -19.444545      -19.119203   1.000000   1.000000
      4         -7.927310       -7.594697   1.000000   1.000000
      5         -5.266455       -5.166484   1.000000   1.000000
      6         -2.289111       -1.520964   1.000000   0.000000
      7         -1.740029       -1.325284   0.000000   0.000000
      8         -1.328527       -1.208279   0.000000   0.000000
      9         -1.254361       -1.106357   0.000000   0.000000
     10         -1.252658       -1.104877   0.000000   0.000000
     11         -1.105692       -0.966670   0.000000   0.000000
     12         -1.103565       -0.962815   0.000000   0.000000
 
  0.1340034E-01  0.1340034E-01  0.0000000E+00  0.1250000E-02
      1        -20.181249      -20.051800   1.000000   1.000000
      2        -19.450337      -19.124497   1.000000   1.000000
      3        -19.444868      -19.119501   1.000000   1.000000
      4         -7.924596       -7.592333   1.000000   1.000000
      5         -5.267153       -5.167187   1.000000   1.000000
      6         -2.291832       -1.520872   1.000000   0.000000
      7         -1.740519       -1.325391   0.000000   0.000000
      8         -1.328284       -1.207979   0.000000   0.000000
      9         -1.254621       -1.106563   0.000000   0.000000
     10         -1.252407       -1.104634   0.000000   0.000000
     11         -1.108202       -0.966763   0.000000   0.000000
     12         -1.104430       -0.961722   0.000000   0.000000
 
  0.1507538E-01  0.1507538E-01  0.0000000E+00  0.1250000E-02
      1        -20.180958      -20.051521   1.000000   1.000000
      2        -19.452145      -19.126152   1.000000   1.000000
      3        -19.445233      -19.119838   1.000000   1.000000
      4         -7.921522       -7.589656   1.000000   1.000000
      5         -5.267945       -5.167985   1.000000   1.000000
      6         -2.294922       -1.520775   1.000000   0.000000
      7         -1.741034       -1.325500   0.000000   0.000000
      8         -1.328016       -1.207639   0.000000   0.000000
      9         -1.254910       -1.106793   0.000000   0.000000
     10         -1.252112       -1.104355   0.000000   0.000000
     11         -1.108257       -0.966868   0.000000   0.000000
     12         -1.103320       -0.960476   0.000000   0.000000
 
  0.1675042E-01  0.1675042E-01  0.0000000E+00  0.1250000E-02
      1        -20.180633      -20.051210   1.000000   1.000000
      2        -19.454161      -19.127999   1.000000   1.000000
      3        -19.445641      -19.120214   1.000000   1.000000
      4         -7.918098       -7.586673   1.000000   1.000000
      5         -5.268827       -5.168874   1.000000   1.000000
      6         -2.298382       -1.520682   1.000000   0.000000
      7         -1.741562       -1.325623   0.000000   0.000000
      8         -1.327711       -1.207262   0.000000   0.000000
      9         -1.255218       -1.107053   0.000000   0.000000
     10         -1.251635       -1.104048   0.000000   0.000000
     11         -1.104412       -0.966986   0.000000   0.000000
     12         -1.085489       -0.959086   0.000000   0.000000
 
  0.1842546E-01  0.1842546E-01  0.0000000E+00  0.1250000E-02
      1        -20.180273      -20.050866   1.000000   1.000000
      2        -19.456386      -19.130035   1.000000   1.000000
      3        -19.446093      -19.120630   1.000000   1.000000
      4         -7.914309       -7.583370   1.000000   1.000000
      5         -5.269797       -5.169852   1.000000   1.000000
      6         -2.302220       -1.520591   1.000000   0.000000
      7         -1.742093       -1.325747   0.000000   0.000000
      8         -1.327390       -1.206846   0.000000   0.000000
      9         -1.255571       -1.107336   0.000000   0.000000
     10         -1.251431       -1.103706   0.000000   0.000000
     11         -1.108706       -0.967116   0.000000   0.000000
     12         -1.102555       -0.957541   0.000000   0.000000
 
  0.2010050E-01  0.2010050E-01  0.0000000E+00  0.1250000E-02
      1        -20.179880      -20.050490   1.000000   1.000000
      2        -19.458819      -19.132262   1.000000   1.000000
      3        -19.446588      -19.121087   1.000000   1.000000
      4         -7.910168       -7.579762   1.000000   1.000000
      5         -5.270861       -5.170924   1.000000   1.000000
      6         -2.306437       -1.520507   1.000000   0.000000
      7         -1.742601       -1.325878   0.000000   0.000000
      8         -1.327042       -1.206393   0.000000   0.000000
      9         -1.255958       -1.107644   0.000000   0.000000
     10         -1.251040       -1.103332   0.000000   0.000000
     11         -1.110971       -0.967257   0.000000   0.000000
     12         -1.098783       -0.955846   0.000000   0.000000
 
  0.2177554E-01  0.2177554E-01  0.0000000E+00  0.1250000E-02
      1        -20.179454      -20.050082   1.000000   1.000000
      2        -19.461456      -19.134677   1.000000   1.000000
      3        -19.447127      -19.121583   1.000000   1.000000
      4         -7.905678       -7.575848   1.000000   1.000000
      5         -5.272015       -5.172089   1.000000   1.000000
      6         -2.311036       -1.520436   1.000000   0.000000
      7         -1.743092       -1.326010   0.000000   0.000000
      8         -1.326662       -1.205902   0.000000   0.000000
      9         -1.255745       -1.107977   0.000000   0.000000
     10         -1.250468       -1.102925   0.000000   0.000000
     11         -1.110470       -0.967410   0.000000   0.000000
     12         -1.098959       -0.953994   0.000000   0.000000
 
  0.2345059E-01  0.2345059E-01  0.0000000E+00  0.1250000E-02
      1        -20.178994      -20.049642   1.000000   1.000000
      2        -19.464297      -19.137279   1.000000   1.000000
      3        -19.447708      -19.122119   1.000000   1.000000
      4         -7.900831       -7.571623   1.000000   1.000000
      5         -5.273261       -5.173345   1.000000   1.000000
      6         -2.316015       -1.520381   1.000000   0.000000
      7         -1.743539       -1.326138   0.000000   0.000000
      8         -1.326271       -1.205378   0.000000   0.000000
      9         -1.256800       -1.108328   0.000000   0.000000
     10         -1.250151       -1.102487   0.000000   0.000000
     11         -1.113289       -0.967574   0.000000   0.000000
     12         -1.101482       -0.951983   0.000000   0.000000
 
  0.2512563E-01  0.2512563E-01  0.0000000E+00  0.1250000E-02
      1        -20.178501      -20.049170   1.000000   1.000000
      2        -19.467340      -19.140065   1.000000   1.000000
      3        -19.448333      -19.122695   1.000000   1.000000
      4         -7.895638       -7.567094   1.000000   1.000000
      5         -5.274598       -5.174693   1.000000   1.000000
      6         -2.321373       -1.520349   1.000000   0.000000
      7         -1.743918       -1.326266   0.000000   0.000000
      8         -1.325855       -1.204819   0.000000   0.000000
      9         -1.257253       -1.108716   0.000000   0.000000
     10         -1.249631       -1.102016   0.000000   0.000000
     11         -1.107129       -0.967752   0.000000   0.000000
     12         -1.099375       -0.949820   0.000000   0.000000
 
  0.2680067E-01  0.2680067E-01  0.0000000E+00  0.1250000E-02
      1        -20.177974      -20.048666   1.000000   1.000000
      2        -19.470584      -19.143036   1.000000   1.000000
      3        -19.449001      -19.123311   1.000000   1.000000
      4         -7.890099       -7.562264   1.000000   1.000000
      5         -5.276024       -5.176132   1.000000   1.000000
      6         -2.327111       -1.520342   1.000000   0.000000
      7         -1.744236       -1.326383   0.000000   0.000000
      8         -1.325427       -1.204225   0.000000   0.000000
      9         -1.257731       -1.109119   0.000000   0.000000
     10         -1.249120       -1.101511   0.000000   0.000000
     11         -1.114975       -0.967938   0.000000   0.000000
     12         -1.100232       -0.947493   0.000000   0.000000
 
  0.2847571E-01  0.2847571E-01  0.0000000E+00  0.1250000E-02
      1        -20.177414      -20.048130   1.000000   1.000000
      2        -19.474027      -19.146190   1.000000   1.000000
      3        -19.449713      -19.123966   1.000000   1.000000
      4         -7.884220       -7.557138   1.000000   1.000000
      5         -5.277534       -5.177655   1.000000   1.000000
      6         -2.333234       -1.520368   1.000000   0.000000
      7         -1.744456       -1.326493   0.000000   0.000000
      8         -1.324957       -1.203598   0.000000   0.000000
      9         -1.258201       -1.109546   0.000000   0.000000
     10         -1.248437       -1.100975   0.000000   0.000000
     11         -1.115978       -0.968138   0.000000   0.000000
     12         -1.096065       -0.945007   0.000000   0.000000
 
  0.3015075E-01  0.3015075E-01  0.0000000E+00  0.1250000E-02
      1        -20.176821      -20.047563   1.000000   1.000000
      2        -19.477666      -19.149524   1.000000   1.000000
      3        -19.450467      -19.124662   1.000000   1.000000
      4         -7.878007       -7.551717   1.000000   1.000000
      5         -5.279140       -5.179275   1.000000   1.000000
      6         -2.339725       -1.520431   1.000000   0.000000
      7         -1.744608       -1.326586   0.000000   0.000000
      8         -1.324524       -1.202938   0.000000   0.000000
      9         -1.258700       -1.109993   0.000000   0.000000
     10         -1.247943       -1.100404   0.000000   0.000000
     11         -1.112315       -0.968350   0.000000   0.000000
     12         -1.095891       -0.942358   0.000000   0.000000
 
  0.3182580E-01  0.3182580E-01  0.0000000E+00  0.1250000E-02
      1        -20.176195      -20.046964   1.000000   1.000000
      2        -19.481500      -19.153036   1.000000   1.000000
      3        -19.451266      -19.125398   1.000000   1.000000
      4         -7.871451       -7.545996   1.000000   1.000000
      5         -5.280830       -5.180980   1.000000   1.000000
      6         -2.346590       -1.520534   1.000000   0.000000
      7         -1.744631       -1.326664   0.000000   0.000000
      8         -1.324055       -1.202248   0.000000   0.000000
      9         -1.259260       -1.110461   0.000000   0.000000
     10         -1.247311       -1.099802   0.000000   0.000000
     11         -1.118133       -0.968572   0.000000   0.000000
     12         -1.098861       -0.939540   0.000000   0.000000
 
  0.3350084E-01  0.3350084E-01  0.0000000E+00  0.1250000E-02
      1        -20.175537      -20.046335   1.000000   1.000000
      2        -19.485527      -19.156726   1.000000   1.000000
      3        -19.452108      -19.126173   1.000000   1.000000
      4         -7.864562       -7.539983   1.000000   1.000000
      5         -5.282606       -5.182773   1.000000   1.000000
      6         -2.353822       -1.520683   1.000000   0.000000
      7         -1.744537       -1.326722   0.000000   0.000000
      8         -1.323586       -1.201527   0.000000   0.000000
      9         -1.259810       -1.110948   0.000000   0.000000
     10         -1.246646       -1.099167   0.000000   0.000000
     11         -1.120464       -0.968804   0.000000   0.000000
     12         -1.098445       -0.936562   0.000000   0.000000
 
  0.3517588E-01  0.3517588E-01  0.0000000E+00  0.1250000E-02
      1        -20.174847      -20.045674   1.000000   1.000000
      2        -19.489744      -19.160592   1.000000   1.000000
      3        -19.452994      -19.126990   1.000000   1.000000
      4         -7.857346       -7.533684   1.000000   1.000000
      5         -5.284473       -5.184657   1.000000   1.000000
      6         -2.361418       -1.520889   1.000000   0.000000
      7         -1.744311       -1.326763   0.000000   0.000000
      8         -1.323109       -1.200778   0.000000   0.000000
      9         -1.260354       -1.111454   0.000000   0.000000
     10         -1.245924       -1.098498   0.000000   0.000000
     11         -1.121399       -0.969047   0.000000   0.000000
     12         -1.097387       -0.933413   0.000000   0.000000
 
  0.3685092E-01  0.3685092E-01  0.0000000E+00  0.1250000E-02
      1        -20.174125      -20.044983   1.000000   1.000000
      2        -19.494150      -19.164630   1.000000   1.000000
      3        -19.453923      -19.127846   1.000000   1.000000
      4         -7.849799       -7.527093   1.000000   1.000000
      5         -5.286425       -5.186627   1.000000   1.000000
      6         -2.369369       -1.521148   1.000000   0.000000
      7         -1.743951       -1.326776   0.000000   0.000000
      8         -1.322643       -1.200003   0.000000   0.000000
      9         -1.260880       -1.111975   0.000000   0.000000
     10         -1.245169       -1.097796   0.000000   0.000000
     11         -1.122447       -0.969300   0.000000   0.000000
     12         -1.096263       -0.930093   0.000000   0.000000
 
  0.3852596E-01  0.3852596E-01  0.0000000E+00  0.1250000E-02
      1        -20.173370      -20.044262   1.000000   1.000000
      2        -19.498742      -19.168840   1.000000   1.000000
      3        -19.454897      -19.128742   1.000000   1.000000
      4         -7.841927       -7.520217   1.000000   1.000000
      5         -5.288455       -5.188678   1.000000   1.000000
      6         -2.377668       -1.521471   1.000000   0.000000
      7         -1.743443       -1.326765   0.000000   0.000000
      8         -1.322183       -1.199201   0.000000   0.000000
      9         -1.261449       -1.112516   0.000000   0.000000
     10         -1.244410       -1.097063   0.000000   0.000000
     11         -1.124198       -0.969565   0.000000   0.000000
     12         -1.096712       -0.926605   0.000000   0.000000
 
  0.4020101E-01  0.4020101E-01  0.0000000E+00  0.1250000E-02
      1        -20.172584      -20.043509   1.000000   1.000000
      2        -19.503517      -19.173219   1.000000   1.000000
      3        -19.455914      -19.129679   1.000000   1.000000
      4         -7.833739       -7.513063   1.000000   1.000000
      5         -5.290581       -5.190825   1.000000   1.000000
      6         -2.386304       -1.521861   1.000000   0.000000
      7         -1.742786       -1.326720   0.000000   0.000000
      8         -1.321724       -1.198376   0.000000   0.000000
      9         -1.261905       -1.113068   0.000000   0.000000
     10         -1.243487       -1.096296   0.000000   0.000000
     11         -1.109043       -0.969838   0.000000   0.000000
     12         -1.094404       -0.922945   0.000000   0.000000
 
  0.4187605E-01  0.4187605E-01  0.0000000E+00  0.1250000E-02
      1        -20.171767      -20.042727   1.000000   1.000000
      2        -19.508474      -19.177764   1.000000   1.000000
      3        -19.456975      -19.130657   1.000000   1.000000
      4         -7.825233       -7.505629   1.000000   1.000000
      5         -5.292780       -5.193046   1.000000   1.000000
      6         -2.395272       -1.522324   1.000000   0.000000
      7         -1.741974       -1.326654   0.000000   0.000000
      8         -1.321310       -1.197529   0.000000   0.000000
      9         -1.262531       -1.113635   0.000000   0.000000
     10         -1.242753       -1.095497   0.000000   0.000000
     11         -1.129615       -0.970124   0.000000   0.000000
     12         -1.096944       -0.919116   0.000000   0.000000
 
  0.4355109E-01  0.4355109E-01  0.0000000E+00  0.1250000E-02
      1        -20.170918      -20.041916   1.000000   1.000000
      2        -19.513608      -19.182473   1.000000   1.000000
      3        -19.458081      -19.131675   1.000000   1.000000
      4         -7.816413       -7.497917   1.000000   1.000000
      5         -5.295062       -5.195352   1.000000   1.000000
      6         -2.404558       -1.522860   1.000000   0.000000
      7         -1.741002       -1.326549   0.000000   0.000000
      8         -1.320891       -1.196663   0.000000   0.000000
      9         -1.263051       -1.114212   0.000000   0.000000
     10         -1.241839       -1.094664   0.000000   0.000000
     11         -1.130922       -0.970414   0.000000   0.000000
     12         -1.095191       -0.915103   0.000000   0.000000
 
  0.4522613E-01  0.4522613E-01  0.0000000E+00  0.1250000E-02
      1        -20.170039      -20.041075   1.000000   1.000000
      2        -19.518917      -19.187343   1.000000   1.000000
      3        -19.459230      -19.132733   1.000000   1.000000
      4         -7.807283       -7.489931   1.000000   1.000000
      5         -5.297426       -5.197740   1.000000   1.000000
      6         -2.414152       -1.523477   1.000000   0.000000
      7         -1.739867       -1.326413   0.000000   0.000000
      8         -1.320531       -1.195778   0.000000   0.000000
      9         -1.263543       -1.114801   0.000000   0.000000
     10         -1.240897       -1.093799   0.000000   0.000000
     11         -1.133926       -0.970721   0.000000   0.000000
     12         -1.091108       -0.910933   0.000000   0.000000
 
  0.4690117E-01  0.4690117E-01  0.0000000E+00  0.1250000E-02
      1        -20.169130      -20.040205   1.000000   1.000000
      2        -19.524399      -19.192374   1.000000   1.000000
      3        -19.460424      -19.133832   1.000000   1.000000
      4         -7.797847       -7.481677   1.000000   1.000000
      5         -5.299874       -5.200215   1.000000   1.000000
      6         -2.424046       -1.524177   1.000000   0.000000
      7         -1.738571       -1.326243   0.000000   0.000000
      8         -1.320198       -1.194878   0.000000   0.000000
      9         -1.264014       -1.115399   0.000000   0.000000
     10         -1.239978       -1.092902   0.000000   0.000000
     11         -1.135446       -0.971035   0.000000   0.000000
     12         -1.095901       -0.906579   0.000000   0.000000
 
  0.4857621E-01  0.4857621E-01  0.0000000E+00  0.1250000E-02
      1        -20.168189      -20.039305   1.000000   1.000000
      2        -19.530051      -19.197560   1.000000   1.000000
      3        -19.461662      -19.134971   1.000000   1.000000
      4         -7.788112       -7.473153   1.000000   1.000000
      5         -5.302400       -5.202769   1.000000   1.000000
      6         -2.434210       -1.524964   1.000000   0.000000
      7         -1.737112       -1.326035   0.000000   0.000000
      8         -1.319889       -1.193964   0.000000   0.000000
      9         -1.264349       -1.116001   0.000000   0.000000
     10         -1.238987       -1.091971   0.000000   0.000000
     11         -1.125606       -0.971357   0.000000   0.000000
     12         -1.087817       -0.902062   0.000000   0.000000
 
  0.5025126E-01  0.5025126E-01  0.0000000E+00  0.1250000E-02
      1        -20.167218      -20.038376   1.000000   1.000000
      2        -19.535868      -19.202899   1.000000   1.000000
      3        -19.462944      -19.136152   1.000000   1.000000
      4         -7.778090       -7.464378   1.000000   1.000000
      5         -5.305003       -5.205401   1.000000   1.000000
      6         -2.444648       -1.525839   1.000000   0.000000
      7         -1.735492       -1.325788   0.000000   0.000000
      8         -1.319676       -1.193042   0.000000   0.000000
      9         -1.264806       -1.116605   0.000000   0.000000
     10         -1.237860       -1.091006   0.000000   0.000000
     11         -1.125808       -0.971687   0.000000   0.000000
     12         -1.061460       -0.897368   0.000000   0.000000
 
  0.5192630E-01  0.5192630E-01  0.0000000E+00  0.1250000E-02
      1        -20.166219      -20.037420   1.000000   1.000000
      2        -19.541849      -19.208390   1.000000   1.000000
      3        -19.464271      -19.137373   1.000000   1.000000
      4         -7.767775       -7.455341   1.000000   1.000000
      5         -5.307690       -5.208119   1.000000   1.000000
      6         -2.455335       -1.526807   1.000000   0.000000
      7         -1.733714       -1.325506   0.000000   0.000000
      8         -1.319503       -1.192112   0.000000   0.000000
      9         -1.265196       -1.117214   0.000000   0.000000
     10         -1.236888       -1.090011   0.000000   0.000000
     11         -1.143032       -0.972031   0.000000   0.000000
     12         -1.097720       -0.892519   0.000000   0.000000
 
  0.5360134E-01  0.5360134E-01  0.0000000E+00  0.1250000E-02
      1        -20.165190      -20.036436   1.000000   1.000000
      2        -19.547989      -19.214028   1.000000   1.000000
      3        -19.465642      -19.138635   1.000000   1.000000
      4         -7.757168       -7.446046   1.000000   1.000000
      5         -5.310450       -5.210912   1.000000   1.000000
      6         -2.466265       -1.527864   1.000000   0.000000
      7         -1.731773       -1.325183   0.000000   0.000000
      8         -1.319384       -1.191177   0.000000   0.000000
      9         -1.265451       -1.117820   0.000000   0.000000
     10         -1.235765       -1.088983   0.000000   0.000000
     11         -1.137406       -0.972380   0.000000   0.000000
     12         -1.093072       -0.887499   0.000000   0.000000
 
  0.5527638E-01  0.5527638E-01  0.0000000E+00  0.1250000E-02
      1        -20.164131      -20.035423   1.000000   1.000000
      2        -19.554286      -19.219811   1.000000   1.000000
      3        -19.467057      -19.139937   1.000000   1.000000
      4         -7.746278       -7.436499   1.000000   1.000000
      5         -5.313279       -5.213775   1.000000   1.000000
      6         -2.477421       -1.529016   1.000000   0.000000
      7         -1.729681       -1.324827   0.000000   0.000000
      8         -1.319365       -1.190243   0.000000   0.000000
      9         -1.265718       -1.118422   0.000000   0.000000
     10         -1.234644       -1.087921   0.000000   0.000000
     11         -1.147177       -0.972730   0.000000   0.000000
     12         -1.098066       -0.882299   0.000000   0.000000
 
  0.5695142E-01  0.5695142E-01  0.0000000E+00  0.1250000E-02
      1        -20.163043      -20.034382   1.000000   1.000000
      2        -19.560736      -19.225737   1.000000   1.000000
      3        -19.468517      -19.141280   1.000000   1.000000
      4         -7.735111       -7.426705   1.000000   1.000000
      5         -5.316190       -5.216722   1.000000   1.000000
      6         -2.488787       -1.530261   1.000000   0.000000
      7         -1.727440       -1.324435   0.000000   0.000000
      8         -1.319417       -1.189311   0.000000   0.000000
      9         -1.265878       -1.119015   0.000000   0.000000
     10         -1.233464       -1.086826   0.000000   0.000000
     11         -1.149599       -0.973105   0.000000   0.000000
     12         -1.096773       -0.876930   0.000000   0.000000
 
  0.5862647E-01  0.5862647E-01  0.0000000E+00  0.1250000E-02
      1        -20.161927      -20.033315   1.000000   1.000000
      2        -19.567338      -19.231802   1.000000   1.000000
      3        -19.470022      -19.142665   1.000000   1.000000
      4         -7.723671       -7.416666   1.000000   1.000000
      5         -5.319165       -5.219734   1.000000   1.000000
      6         -2.500344       -1.531600   1.000000   0.000000
      7         -1.725049       -1.324006   0.000000   0.000000
      8         -1.319548       -1.188387   0.000000   0.000000
      9         -1.265943       -1.119592   0.000000   0.000000
     10         -1.232210       -1.085697   0.000000   0.000000