    3    3    1    1
  0.9065869E+02  0.3750359E-09  0.3750359E-09  0.2232816E-08  0.5000000E-15
  1.000000000000000E-004
  CAR 
 unknown system                          
     11    800     20
 
  0.0000000E+00  0.0000000E+00  0.0000000E+00  0.1250000E-02
    1      -21.287546   1.000000
    2      -21.193849   1.000000
    3      -19.077134   1.000000
    4      -18.979261   1.000000
    5      -18.656588   1.000000
    6      -18.326415   1.000000
    7       -7.937395   1.000000
    8       -7.602720   1.000000
    9       -5.257865   1.000000
   10       -5.156815   1.000000
   11       -2.288745   1.000000
   12       -1.747750   0.000000
   13       -1.536033   0.000000
   14       -1.379421   0.000000
   15       -1.367629   0.000000
   16       -1.347523   0.000000
   17       -1.309586   0.000000
   18       -1.260666   0.000000
   19       -1.171590   0.000000
   20       -1.044399   0.000000
 
  0.1675042E-02  0.1675042E-02  0.0000000E+00  0.1250000E-02
    1      -21.287567   1.000000
    2      -21.193860   1.000000
    3      -19.077154   1.000000
    4      -18.979284   1.000000
    5      -18.656661   1.000000
    6      -18.326482   1.000000
    7       -7.937212   1.000000
    8       -7.602560   1.000000
    9       -5.257907   1.000000
   10       -5.156856   1.000000
   11       -2.288925   1.000000
   12       -1.747783   0.000000
   13       -1.536038   0.000000
   14       -1.379447   0.000000
   15       -1.367661   0.000000
   16       -1.344877   0.000000
   17       -1.309582   0.000000
   18       -1.260944   0.000000
   19       -1.168188   0.000000
   20       -1.048913   0.000000
 
  0.3350084E-02  0.3350084E-02  0.0000000E+00  0.1250000E-02
    1      -21.287628   1.000000
    2      -21.193894   1.000000
    3      -19.077213   1.000000
    4      -18.979355   1.000000
    5      -18.656880   1.000000
    6      -18.326682   1.000000
    7       -7.936664   1.000000
    8       -7.602082   1.000000
    9       -5.258048   1.000000
   10       -5.156998   1.000000
   11       -2.289460   1.000000
   12       -1.747882   0.000000
   13       -1.536036   0.000000
   14       -1.379531   0.000000
   15       -1.367713   0.000000
   16       -1.345467   0.000000
   17       -1.309520   0.000000
   18       -1.260343   0.000000
   19       -1.171512   0.000000
   20       -1.046717   0.000000
 
  0.5025126E-02  0.5025126E-02  0.0000000E+00  0.1250000E-02
    1      -21.287730   1.000000
    2      -21.193950   1.000000
    3      -19.077313   1.000000
    4      -18.979473   1.000000
    5      -18.657246   1.000000
    6      -18.327016   1.000000
    7       -7.935755   1.000000
    8       -7.601293   1.000000
    9       -5.258285   1.000000
   10       -5.157237   1.000000
   11       -2.290361   1.000000
   12       -1.748047   0.000000
   13       -1.536055   0.000000
   14       -1.379680   0.000000
   15       -1.367785   0.000000
   16       -1.346952   0.000000
   17       -1.309413   0.000000
   18       -1.260917   0.000000
   19       -1.171376   0.000000
   20       -1.047926   0.000000
 
  0.6700168E-02  0.6700168E-02  0.0000000E+00  0.1250000E-02
    1      -21.287873   1.000000
    2      -21.194028   1.000000
    3      -19.077452   1.000000
    4      -18.979640   1.000000
    5      -18.657758   1.000000
    6      -18.327483   1.000000
    7       -7.934476   1.000000
    8       -7.600182   1.000000
    9       -5.258614   1.000000
   10       -5.157570   1.000000
   11       -2.291625   1.000000
   12       -1.748271   0.000000
   13       -1.536056   0.000000
   14       -1.379896   0.000000
   15       -1.367845   0.000000
   16       -1.346464   0.000000
   17       -1.309328   0.000000
   18       -1.260700   0.000000
   19       -1.171670   0.000000
   20       -1.045086   0.000000
 
  0.8375209E-02  0.8375209E-02  0.0000000E+00  0.1250000E-02
    1      -21.288056   1.000000
    2      -21.194129   1.000000
    3      -19.077631   1.000000
    4      -18.979854   1.000000
    5      -18.658415   1.000000
    6      -18.328081   1.000000
    7       -7.932841   1.000000
    8       -7.598763   1.000000
    9       -5.259038   1.000000
   10       -5.157997   1.000000
   11       -2.293245   1.000000
   12       -1.748548   0.000000
   13       -1.536076   0.000000
   14       -1.380187   0.000000
   15       -1.367873   0.000000
   16       -1.344949   0.000000
   17       -1.309097   0.000000
   18       -1.260607   0.000000
   19       -1.171002   0.000000
   20       -1.057145   0.000000
 
  0.1005025E-01  0.1005025E-01  0.0000000E+00  0.1250000E-02
    1      -21.288281   1.000000
    2      -21.194253   1.000000
    3      -19.077850   1.000000
    4      -18.980115   1.000000
    5      -18.659218   1.000000
    6      -18.328811   1.000000
    7       -7.930832   1.000000
    8       -7.597021   1.000000
    9       -5.259554   1.000000
   10       -5.158519   1.000000
   11       -2.295236   1.000000
   12       -1.748865   0.000000
   13       -1.536091   0.000000
   14       -1.380562   0.000000
   15       -1.367825   0.000000
   16       -1.344731   0.000000
   17       -1.308688   0.000000
   18       -1.258792   0.000000
   19       -1.170487   0.000000
   20       -1.047416   0.000000
 
  0.1172529E-01  0.1172529E-01  0.0000000E+00  0.1250000E-02
    1      -21.288546   1.000000
    2      -21.194400   1.000000
    3      -19.078109   1.000000
    4      -18.980425   1.000000
    5      -18.660166   1.000000
    6      -18.329672   1.000000
    7       -7.928457   1.000000
    8       -7.594961   1.000000
    9       -5.260165   1.000000
   10       -5.159135   1.000000
   11       -2.297595   1.000000
   12       -1.749235   0.000000
   13       -1.536129   0.000000
   14       -1.381015   0.000000
   15       -1.367813   0.000000
   16       -1.344249   0.000000
   17       -1.308772   0.000000
   18       -1.260105   0.000000
   19       -1.171836   0.000000
   20       -1.056085   0.000000
 
  0.1340034E-01  0.1340034E-01  0.0000000E+00  0.1250000E-02
    1      -21.288852   1.000000
    2      -21.194569   1.000000
    3      -19.078408   1.000000
    4      -18.980783   1.000000
    5      -18.661257   1.000000
    6      -18.330663   1.000000
    7       -7.925725   1.000000
    8       -7.592596   1.000000
    9       -5.260868   1.000000
   10       -5.159846   1.000000
   11       -2.300322   1.000000
   12       -1.749619   0.000000
   13       -1.536165   0.000000
   14       -1.381531   0.000000
   15       -1.367699   0.000000
   16       -1.343018   0.000000
   17       -1.308507   0.000000
   18       -1.254720   0.000000
   19       -1.171737   0.000000
   20       -1.050281   0.000000
 
  0.1507538E-01  0.1507538E-01  0.0000000E+00  0.1250000E-02
    1      -21.289198   1.000000
    2      -21.194761   1.000000
    3      -19.078746   1.000000
    4      -18.981189   1.000000
    5      -18.662491   1.000000
    6      -18.331781   1.000000
    7       -7.922631   1.000000
    8       -7.589918   1.000000
    9       -5.261667   1.000000
   10       -5.160653   1.000000
   11       -2.303418   1.000000
   12       -1.750040   0.000000
   13       -1.536219   0.000000
   14       -1.382128   0.000000
   15       -1.367530   0.000000
   16       -1.342191   0.000000
   17       -1.308269   0.000000
   18       -1.260241   0.000000
   19       -1.171889   0.000000
   20       -1.045871   0.000000
 
  0.1675042E-01  0.1675042E-01  0.0000000E+00  0.1250000E-02
    1      -21.289585   1.000000
    2      -21.194976   1.000000
    3      -19.079126   1.000000
    4      -18.981643   1.000000
    5      -18.663866   1.000000
    6      -18.333027   1.000000
    7       -7.919183   1.000000
    8       -7.586936   1.000000
    9       -5.262555   1.000000
   10       -5.161552   1.000000
   11       -2.306883   1.000000
   12       -1.750451   0.000000
   13       -1.536290   0.000000
   14       -1.382737   0.000000
   15       -1.367314   0.000000
   16       -1.340465   0.000000
   17       -1.307928   0.000000
   18       -1.260247   0.000000
   19       -1.170409   0.000000
   20       -1.060578   0.000000
 
  0.1842546E-01  0.1842546E-01  0.0000000E+00  0.1250000E-02
    1      -21.290013   1.000000
    2      -21.195214   1.000000
    3      -19.079545   1.000000
    4      -18.982146   1.000000
    5      -18.665383   1.000000
    6      -18.334400   1.000000
    7       -7.915366   1.000000
    8       -7.583635   1.000000
    9       -5.263533   1.000000
   10       -5.162541   1.000000
   11       -2.310724   1.000000
   12       -1.750855   0.000000
   13       -1.536376   0.000000
   14       -1.383425   0.000000
   15       -1.367017   0.000000
   16       -1.338672   0.000000
   17       -1.307574   0.000000
   18       -1.257939   0.000000
   19       -1.171126   0.000000
   20       -1.054717   0.000000
 
  0.2010050E-01  0.2010050E-01  0.0000000E+00  0.1250000E-02
    1      -21.290481   1.000000
    2      -21.195476   1.000000
    3      -19.080005   1.000000
    4      -18.982697   1.000000
    5      -18.667039   1.000000
    6      -18.335898   1.000000
    7       -7.911194   1.000000
    8       -7.580031   1.000000
    9       -5.264605   1.000000
   10       -5.163626   1.000000
   11       -2.314942   1.000000
   12       -1.751257   0.000000
   13       -1.536491   0.000000
   14       -1.384212   0.000000
   15       -1.366730   0.000000
   16       -1.338360   0.000000
   17       -1.307264   0.000000
   18       -1.260034   0.000000
   19       -1.172490   0.000000
   20       -1.065249   0.000000
 
  0.2177554E-01  0.2177554E-01  0.0000000E+00  0.1250000E-02
    1      -21.290990   1.000000
    2      -21.195761   1.000000
    3      -19.080506   1.000000
    4      -18.983297   1.000000
    5      -18.668834   1.000000
    6      -18.337520   1.000000
    7       -7.906668   1.000000
    8       -7.576123   1.000000
    9       -5.265769   1.000000
   10       -5.164804   1.000000
   11       -2.319539   1.000000
   12       -1.751618   0.000000
   13       -1.536631   0.000000
   14       -1.384997   0.000000
   15       -1.366376   0.000000
   16       -1.337512   0.000000
   17       -1.306910   0.000000
   18       -1.260039   0.000000
   19       -1.172392   0.000000
   20       -1.080138   0.000000
 
  0.2345059E-01  0.2345059E-01  0.0000000E+00  0.1250000E-02
    1      -21.291539   1.000000
    2      -21.196069   1.000000
    3      -19.081048   1.000000
    4      -18.983946   1.000000
    5      -18.670764   1.000000
    6      -18.339263   1.000000
    7       -7.901782   1.000000
    8       -7.571907   1.000000
    9       -5.267024   1.000000
   10       -5.166075   1.000000
   11       -2.324515   1.000000
   12       -1.751931   0.000000
   13       -1.536792   0.000000
   14       -1.385825   0.000000
   15       -1.365982   0.000000
   16       -1.336219   0.000000
   17       -1.306453   0.000000
   18       -1.259643   0.000000
   19       -1.172451   0.000000
   20       -1.072607   0.000000
 
  0.2512563E-01  0.2512563E-01  0.0000000E+00  0.1250000E-02
    1      -21.292129   1.000000
    2      -21.196401   1.000000
    3      -19.081631   1.000000
    4      -18.984643   1.000000
    5      -18.672829   1.000000
    6      -18.341127   1.000000
    7       -7.896545   1.000000
    8       -7.567389   1.000000
    9       -5.268370   1.000000
   10       -5.167439   1.000000
   11       -2.329866   1.000000
   12       -1.752191   0.000000
   13       -1.536984   0.000000
   14       -1.386653   0.000000
   15       -1.365557   0.000000
   16       -1.334699   0.000000
   17       -1.306030   0.000000
   18       -1.259694   0.000000
   19       -1.172717   0.000000
   20       -1.038011   0.000000
 
  0.2680067E-01  0.2680067E-01  0.0000000E+00  0.1250000E-02
    1      -21.292760   1.000000
    2      -21.196756   1.000000
    3      -19.082256   1.000000
    4      -18.985389   1.000000
    5      -18.675028   1.000000
    6      -18.343110   1.000000
    7       -7.890958   1.000000
    8       -7.562573   1.000000
    9       -5.269807   1.000000
   10       -5.168895   1.000000
   11       -2.335593   1.000000
   12       -1.752370   0.000000
   13       -1.537211   0.000000
   14       -1.387529   0.000000
   15       -1.365090   0.000000
   16       -1.333187   0.000000
   17       -1.305620   0.000000
   18       -1.258222   0.000000
   19       -1.172845   0.000000
   20       -1.073175   0.000000
 
  0.2847571E-01  0.2847571E-01  0.0000000E+00  0.1250000E-02
    1      -21.293431   1.000000
    2      -21.197135   1.000000
    3      -19.082922   1.000000
    4      -18.986184   1.000000
    5      -18.677358   1.000000
    6      -18.345211   1.000000
    7       -7.885026   1.000000
    8       -7.557464   1.000000
    9       -5.271327   1.000000
   10       -5.170436   1.000000
   11       -2.341701   1.000000
   12       -1.752488   0.000000
   13       -1.537483   0.000000
   14       -1.388408   0.000000
   15       -1.364618   0.000000
   16       -1.331844   0.000000
   17       -1.305068   0.000000
   18       -1.259397   0.000000
   19       -1.171697   0.000000
   20       -1.106923   0.000000
 
  0.3015075E-01  0.3015075E-01  0.0000000E+00  0.1250000E-02
    1      -21.294142   1.000000
    2      -21.197538   1.000000
    3      -19.083630   1.000000
    4      -18.987028   1.000000
    5      -18.679817   1.000000
    6      -18.347427   1.000000
    7       -7.878755   1.000000
    8       -7.552064   1.000000
    9       -5.272944   1.000000
   10       -5.172077   1.000000
   11       -2.348175   1.000000
   12       -1.752502   0.000000
   13       -1.537791   0.000000
   14       -1.389300   0.000000
   15       -1.364116   0.000000
   16       -1.329954   0.000000
   17       -1.304535   0.000000
   18       -1.258455   0.000000
   19       -1.173220   0.000000
   20       -1.085484   0.000000
 
  0.3182580E-01  0.3182580E-01  0.0000000E+00  0.1250000E-02
    1      -21.294894   1.000000
    2      -21.197965   1.000000
    3      -19.084381   1.000000
    4      -18.987921   1.000000
    5      -18.682403   1.000000
    6      -18.349756   1.000000
    7       -7.872136   1.000000
    8       -7.546368   1.000000
    9       -5.274645   1.000000
   10       -5.173803   1.000000
   11       -2.355017   1.000000
   12       -1.752408   0.000000
   13       -1.538138   0.000000
   14       -1.390213   0.000000
   15       -1.363591   0.000000
   16       -1.328201   0.000000
   17       -1.303775   0.000000
   18       -1.256900   0.000000
   19       -1.172068   0.000000
   20       -1.080637   0.000000
 
  0.3350084E-01  0.3350084E-01  0.0000000E+00  0.1250000E-02
    1      -21.295686   1.000000
    2      -21.198417   1.000000
    3      -19.085175   1.000000
    4      -18.988864   1.000000
    5      -18.685114   1.000000
    6      -18.352197   1.000000
    7       -7.865179   1.000000
    8       -7.540384   1.000000
    9       -5.276432   1.000000
   10       -5.175618   1.000000
   11       -2.362223   1.000000
   12       -1.752207   0.000000
   13       -1.538542   0.000000
   14       -1.391138   0.000000
   15       -1.363050   0.000000
   16       -1.326856   0.000000
   17       -1.303673   0.000000
   18       -1.258537   0.000000
   19       -1.173081   0.000000
   20       -1.121029   0.000000
 
  0.3517588E-01  0.3517588E-01  0.0000000E+00  0.1250000E-02
    1      -21.296519   1.000000
    2      -21.198893   1.000000
    3      -19.086013   1.000000
    4      -18.989856   1.000000
    5      -18.687947   1.000000
    6      -18.354748   1.000000
    7       -7.857890   1.000000
    8       -7.534119   1.000000
    9       -5.278311   1.000000
   10       -5.177527   1.000000
   11       -2.369788   1.000000
   12       -1.751880   0.000000
   13       -1.538995   0.000000
   14       -1.392021   0.000000
   15       -1.362491   0.000000
   16       -1.324912   0.000000
   17       -1.303139   0.000000
   18       -1.257060   0.000000
   19       -1.173448   0.000000
   20       -1.123892   0.000000
 
  0.3685092E-01  0.3685092E-01  0.0000000E+00  0.1250000E-02
    1      -21.297393   1.000000
    2      -21.199393   1.000000
    3      -19.086894   1.000000
    4      -18.990898   1.000000
    5      -18.690900   1.000000
    6      -18.357407   1.000000
    7       -7.850263   1.000000
    8       -7.527566   1.000000
    9       -5.280274   1.000000
   10       -5.179523   1.000000
   11       -2.377704   1.000000
   12       -1.751425   0.000000
   13       -1.539502   0.000000
   14       -1.393000   0.000000
   15       -1.361917   0.000000
   16       -1.323210   0.000000
   17       -1.302603   0.000000
   18       -1.257577   0.000000
   19       -1.171421   0.000000
   20       -1.134468   0.000000
 
  0.3852596E-01  0.3852596E-01  0.0000000E+00  0.1250000E-02
    1      -21.298307   1.000000
    2      -21.199919   1.000000
    3      -19.087819   1.000000
    4      -18.991989   1.000000
    5      -18.693971   1.000000
    6      -18.360171   1.000000
    7       -7.842307   1.000000
    8       -7.520733   1.000000
    9       -5.282317   1.000000
   10       -5.181600   1.000000
   11       -2.385964   1.000000
   12       -1.750833   0.000000
   13       -1.540065   0.000000
   14       -1.393944   0.000000
   15       -1.361329   0.000000
   16       -1.321648   0.000000
   17       -1.302070   0.000000
   18       -1.257601   0.000000
   19       -1.173166   0.000000
   20       -1.140998   0.000000
 
  0.4020101E-01  0.4020101E-01  0.0000000E+00  0.1250000E-02
    1      -21.299262   1.000000
    2      -21.200469   1.000000
    3      -19.088789   1.000000
    4      -18.993129   1.000000
    5      -18.697157   1.000000
    6      -18.363039   1.000000
    7       -7.834028   1.000000
    8       -7.513628   1.000000
    9       -5.284456   1.000000
   10       -5.183776   1.000000
   11       -2.394557   1.000000
   12       -1.750099   0.000000
   13       -1.540683   0.000000
   14       -1.394888   0.000000
   15       -1.360726   0.000000
   16       -1.319529   0.000000
   17       -1.301572   0.000000
   18       -1.256470   0.000000
   19       -1.173627   0.000000
   20       -1.119124   0.000000
 
  0.4187605E-01  0.4187605E-01  0.0000000E+00  0.1250000E-02
    1      -21.300257   1.000000
    2      -21.201044   1.000000
    3      -19.089805   1.000000
    4      -18.994319   1.000000
    5      -18.700455   1.000000
    6      -18.366008   1.000000
    7       -7.825426   1.000000
    8       -7.506248   1.000000
    9       -5.286666   1.000000
   10       -5.186026   1.000000
   11       -2.403479   1.000000
   12       -1.749221   0.000000
   13       -1.541372   0.000000
   14       -1.395844   0.000000
   15       -1.360116   0.000000
   16       -1.317816   0.000000
   17       -1.301039   0.000000
   18       -1.256528   0.000000
   19       -1.172175   0.000000
   20       -1.140836   0.000000
 
  0.4355109E-01  0.4355109E-01  0.0000000E+00  0.1250000E-02
    1      -21.301293   1.000000
    2      -21.201645   1.000000
    3      -19.090866   1.000000
    4      -18.995559   1.000000
    5      -18.703862   1.000000
    6      -18.369075   1.000000
    7       -7.816504   1.000000
    8       -7.498597   1.000000
    9       -5.288962   1.000000
   10       -5.188364   1.000000
   11       -2.412716   1.000000
   12       -1.748194   0.000000
   13       -1.542123   0.000000
   14       -1.396803   0.000000
   15       -1.359500   0.000000
   16       -1.315961   0.000000
   17       -1.300524   0.000000
   18       -1.256266   0.000000
   19       -1.173509   0.000000
   20       -1.163277   0.000000
 
  0.4522613E-01  0.4522613E-01  0.0000000E+00  0.1250000E-02
    1      -21.302369   1.000000
    2      -21.202270   1.000000
    3      -19.091974   1.000000
    4      -18.996848   1.000000
    5      -18.707375   1.000000
    6      -18.372238   1.000000
    7       -7.807264   1.000000
    8       -7.490677   1.000000
    9       -5.291337   1.000000
   10       -5.190785   1.000000
   11       -2.422258   1.000000
   12       -1.747016   0.000000
   13       -1.542938   0.000000
   14       -1.397747   0.000000
   15       -1.358871   0.000000
   16       -1.313824   0.000000
   17       -1.299814   0.000000
   18       -1.252025   0.000000
   19       -1.173706   0.000000
   20       -1.097165   0.000000
 
  0.4690117E-01  0.4690117E-01  0.0000000E+00  0.1250000E-02
    1      -21.303486   1.000000
    2      -21.202922   1.000000
    3      -19.093128   1.000000
    4      -18.998187   1.000000
    5      -18.710991   1.000000
    6      -18.375496   1.000000
    7       -7.797713   1.000000
    8       -7.482495   1.000000
    9       -5.293798   1.000000
   10       -5.193294   1.000000
   11       -2.432097   1.000000
   12       -1.745687   0.000000
   13       -1.543822   0.000000
   14       -1.398720   0.000000
   15       -1.358233   0.000000
   16       -1.311952   0.000000
   17       -1.299474   0.000000
   18       -1.255178   0.000000
   19       -1.173430   0.000000
   20       -1.149822   0.000000
 
  0.4857621E-01  0.4857621E-01  0.0000000E+00  0.1250000E-02
    1      -21.304643   1.000000
    2      -21.203599   1.000000
    3      -19.094330   1.000000
    4      -18.999575   1.000000
    5      -18.714707   1.000000
    6      -18.378845   1.000000
    7       -7.787855   1.000000
    8       -7.474050   1.000000
    9       -5.296336   1.000000
   10       -5.195884   1.000000
   11       -2.442205   1.000000
   12       -1.744208   0.000000
   13       -1.544777   0.000000
   14       -1.399685   0.000000
   15       -1.357572   0.000000
   16       -1.309832   0.000000
   17       -1.299072   0.000000
   18       -1.254630   0.000000
   19       -1.173474   0.000000
   20       -1.163462   0.000000
 
  0.5025126E-01  0.5025126E-01  0.0000000E+00  0.1250000E-02
    1      -21.305840   1.000000
    2      -21.204301   1.000000
    3      -19.095580   1.000000
    4      -19.001011   1.000000
    5      -18.718518   1.000000
    6      -18.382282   1.000000
    7       -7.777704   1.000000
    8       -7.465362   1.000000
    9       -5.298952   1.000000
   10       -5.198553   1.000000
   11       -2.452584   1.000000
   12       -1.742577   0.000000
   13       -1.545802   0.000000
   14       -1.400650   0.000000
   15       -1.356930   0.000000
   16       -1.307958   0.000000
   17       -1.298593   0.000000
   18       -1.253934   0.000000
   19       -1.172120   0.000000
   20       -1.164432   0.000000
 
  0.5192630E-01  0.5192630E-01  0.0000000E+00  0.1250000E-02
    1      -21.307078   1.000000
    2      -21.205030   1.000000
    3      -19.096879   1.000000
    4      -19.002499   1.000000
    5      -18.722424   1.000000
    6      -18.385806   1.000000
    7       -7.767253   1.000000
    8       -7.456419   1.000000
    9       -5.301651   1.000000
   10       -5.201310   1.000000
   11       -2.463211   1.000000
   12       -1.740801   0.000000
   13       -1.546900   0.000000
   14       -1.401618   0.000000
   15       -1.356278   0.000000
   16       -1.305606   0.000000
   17       -1.298177   0.000000
   18       -1.254022   0.000000
   19       -1.177101   0.000000
   20       -1.170345   0.000000
 
  0.5360134E-01  0.5360134E-01  0.0000000E+00  0.1250000E-02
    1      -21.308355   1.000000
    2      -21.205785   1.000000
    3      -19.098227   1.000000
    4      -19.004034   1.000000
    5      -18.726418   1.000000
    6      -18.389413   1.000000
    7       -7.756503   1.000000
    8       -7.447225   1.000000
    9       -5.304424   1.000000
   10       -5.204144   1.000000
   11       -2.474081   1.000000
   12       -1.738875   0.000000
   13       -1.548067   0.000000
   14       -1.402588   0.000000
   15       -1.355606   0.000000
   16       -1.303782   0.000000
   17       -1.297789   0.000000
   18       -1.252561   0.000000
   19       -1.173766   0.000000
   20       -1.170944   0.000000
 
  0.5527638E-01  0.5527638E-01  0.0000000E+00  0.1250000E-02
    1      -21.309672   1.000000
    2      -21.206565   1.000000
    3      -19.099625   1.000000
    4      -19.005619   1.000000
    5      -18.730499   1.000000
    6      -18.393101   1.000000
    7       -7.745462   1.000000
    8       -7.437787   1.000000
    9       -5.307265   1.000000
   10       -5.207049   1.000000
   11       -2.485177   1.000000
   12       -1.736809   0.000000
   13       -1.549306   0.000000
   14       -1.403563   0.000000
   15       -1.354944   0.000000
   16       -1.301789   0.000000
   17       -1.297436   0.000000
   18       -1.253317   0.000000
   19       -1.181605   0.000000
   20       -1.172710   0.000000
 
  0.5695142E-01  0.5695142E-01  0.0000000E+00  0.1250000E-02
    1      -21.311030   1.000000
    2      -21.207372   1.000000
    3      -19.101074   1.000000
    4      -19.007252   1.000000
    5      -18.734661   1.000000
    6      -18.396867   1.000000
    7       -7.734138   1.000000
    8       -7.428110   1.000000
    9       -5.310188   1.000000
   10       -5.210040   1.000000
   11       -2.496484   1.000000
   12       -1.734605   0.000000
   13       -1.550616   0.000000
   14       -1.404540   0.000000
   15       -1.354265   0.000000
   16       -1.299626   0.000000
   17       -1.297091   0.000000
   18       -1.252514   0.000000
   19       -1.179359   0.000000
   20       -1.172458   0.000000
 
  0.5862647E-01  0.5862647E-01  0.0000000E+00  0.1250000E-02
    1      -21.312427   1.000000
    2      -21.208206   1.000000
    3      -19.102574   1.000000
    4      -19.008934   1.000000
    5      -18.738903   1.000000
    6      -18.400710   1.000000
    7       -7.722532   1.000000
    8       -7.418196   1.000000
    9       -5.313175   1.000000
   10       -5.213097   1.000000
   11       -2.507982   1.000000
   12       -1.732269   0.000000
   13       -1.551998   0.000000
   14       -1.405522   0.000000
   15       -1.353583   0.000000
   16       -1.297684   0.000000
   17       -1.296782   0.000000
   18       -1.251290   0.000000
   19       -1.176564   0.000000
   20       -1.169417   0.000000
 
  0.6030151E-01  0.6030151E-01  0.0000000E+00  0.1250000E-02
    1      -21.313864   1.000000
    2      -21.209066   1.000000
    3      -19.104127   1.000000
    4      -19.010665   1.000000
    5      -18.743221   1.000000
    6      -18.404626   1.000000
    7       -7.710652   1.000000
    8       -7.408056   1.000000
    9       -5.316238   1.000000
   10       -5.216235   1.000000
   11       -2.519670   1.000000
   12       -1.729805   0.000000
   13       -1.553453   0.000000
   14       -1.406451   0.000000
   15       -1.352816   0.000000
   16       -1.296454   0.000000
   17       -1.293519   0.000000
   18       -1.243683   0.000000
   19       -1.173101   0.000000
   20       -1.134729   0.000000
 
  0.6197655E-01  0.6197655E-01  0.0000000E+00  0.1250000E-02
    1      -21.315341   1.000000
    2      -21.209952   1.000000
    3      -19.105733   1.000000
    4      -19.012444   1.000000
    5      -18.747608   1.000000
    6      -18.408611   1.000000
    7       -7.698507   1.000000
    8       -7.397690   1.000000
    9       -5.319374   1.000000
   10       -5.219450   1.000000
   11       -2.531512   1.000000
   12       -1.727219   0.000000
   13       -1.554973   0.000000
   14       -1.407502   0.000000
   15       -1.352219   0.000000
   16       -1.296269   0.000000
   17       -1.293496   0.000000
   18       -1.251551   0.000000
   19       -1.187025   0.000000
   20       -1.171489   0.000000
 
  0.6365159E-01  0.6365159E-01  0.0000000E+00  0.1250000E-02
    1      -21.316857   1.000000
    2      -21.210865   1.000000
    3      -19.107392   1.000000
    4      -19.014270   1.000000
    5      -18.752064   1.000000
    6      -18.412665   1.000000
    7       -7.686094   1.000000
    8       -7.387100   1.000000
    9       -5.322579   1.000000
   10       -5.222738   1.000000
   11       -2.543504   1.000000
   12       -1.724519   0.000000
   13       -1.556560   0.000000
   14       -1.408499   0.000000
   15       -1.351526   0.000000
   16       -1.295910   0.000000
   17       -1.291649   0.000000
   18       -1.247327   0.000000
   19       -1.184107   0.000000
   20       -1.170245   0.000000
 
  0.6532663E-01  0.6532663E-01  0.0000000E+00  0.1250000E-02
    1      -21.318413   1.000000
    2      -21.211806   1.000000
    3      -19.109107   1.000000
    4      -19.016145   1.000000
    5      -18.756583   1.000000
    6      -18.416783   1.000000
    7       -7.673417   1.000000
    8       -7.376289   1.000000
    9       -5.325847   1.000000
   10       -5.226092   1.000000
   11       -2.555627   1.000000
   12       -1.721707   0.000000
   13       -1.558210   0.000000
   14       -1.409505   0.000000
   15       -1.350836   0.000000
   16       -1.295873   0.000000
   17       -1.289460   0.000000
   18       -1.250471   0.000000
   19       -1.189610   0.000000
   20       -1.169982   0.000000
 
  0.6700168E-01  0.6700168E-01  0.0000000E+00  0.1250000E-02
    1      -21.320008   1.000000
    2      -21.212773   1.000000
    3      -19.110877   1.000000
    4      -19.018067   1.000000
    5      -18.761161   1.000000
    6      -18.420964   1.000000
    7       -7.660486   1.000000
    8       -7.365263   1.000000
    9       -5.329181   1.000000
   10       -5.229516   1.000000
   11       -2.567869   1.000000
   12       -1.718792   0.000000
   13       -1.559923   0.000000
   14       -1.410505   0.000000
   15       -1.350142   0.000000
   16       -1.295755   0.000000
   17       -1.286970   0.000000
   18       -1.250788   0.000000
   19       -1.186700   0.000000
   20       -1.168447   0.000000
 
  0.6867672E-01  0.6867672E-01  0.0000000E+00  0.1250000E-02
    1      -21.321642   1.000000
    2      -21.213767   1.000000
    3      -19.112703   1.000000